{"0": ["methylene", "chloride", "well-known", "widely", "used", "solvent", "paint", "strippers", "marketing", "methylene", "chloride-based", "paint", "strippers", "banned", "european", "union"], "1": ["dichloromethane", "dcm", "methylene", "chloride", "organic", "compound", "formula", "c", "h", "cl", "colorless", "volatile", "liquid", "moderately", "sweet", "aroma", "widely", "used", "solvent", "although", "miscible", "water", "miscible", "many", "organic", "solvents", "one", "well-known", "applications", "dichloromethane", "drinking", "bird", "heat", "engine", "chemical", "compound's", "low", "boiling", "point", "allows", "chemical", "function", "heat", "engine", "extract", "mechanical", "energy", "small", "temperature", "differences", "example", "dcm", "heat", "engine", "drinking", "bird", "toy", "works", "room", "temperature"], "2": ["methylene", "chloride", "clear", "non-flammable", "liquid", "sweet", "pleasant", "odor", "primarily", "used", "paint", "remover", "industrial", "solvent", "grain", "fumigant", "home", "methylene", "chloride", "may", "ingredient", "paint", "removers", "fire", "extinguishers", "following", "symptoms", "may", "occur", "immediately", "shortly", "exposure", "levels", "methylene", "chloride", "300,000", "ppbv", "air", "increased", "levels", "carbon", "monoxide", "blood", "may", "cause", "fatigue", "shortness", "breath", "chest", "pain", "drowsiness", "headache", "feeling", "drunk"], "3": ["methylene", "chloride", "also", "used", "propellant", "aerosols", "products", "paints", "automotive", "products", "insect", "sprays", "used", "extraction", "solvent", "spice", "oleoresins", "hops", "removal", "caffeine", "coffee", "methylene", "chloride", "colorless", "liquid", "sweetish", "odor", "chemical", "formula", "methylene", "chloride", "ch", "cl", "molecular", "weight", "84.93", "g", "mol", "vapor", "pressure", "methylene", "chloride", "mm", "hg", "\u00b0", "c", "octanol", "water", "coefficient", "log", "k", "ow", "1.30"], "4": ["\u2022", "paint", "varnish", "remover", "methylene", "chloride", "commonly", "used", "solvent", "paint", "stripping", "accounts", "european", "usage", "compound", "quick", "acting", "solvent", "wash-off", "scrape-off", "formulations", "sensitive", "metals", "methylene", "chloride", "ideal", "low", "boiling", "temperature", "\u2022", "aerosols", "methylene", "chloride", "excellent", "solvent", "ingredients", "aerosol", "formulations", "end-use", "represents", "european", "usage", "product"], "5": ["uses", "methylene", "chloride", "predominantly", "used", "solvent", "paint", "strippers", "removers", "process", "solvent", "manufacture", "drugs", "pharmaceuticals", "film", "coatings", "metal", "cleaning", "finishing", "solvent", "electronics", "manufacturing", "agent", "urethane", "foam", "blowing", "methylene", "chloride", "colorless", "liquid", "sweetish", "odor", "chemical", "formula", "methylene", "chloride", "ch", "cl", "molecular", "weight", "84.93", "g", "mol", "vapor", "pressure", "methylene", "chloride", "mm", "hg", "\u00b0", "c", "octanol", "water", "coefficient", "log", "k", "ow", "1.30"], "6": ["methylene", "chloride", "predominantly", "used", "solvent", "paint", "stripper", "varnish", "removal", "aerosol", "spray", "repellent", "degreasing", "effective", "solvent", "highly", "volatility", "stability", "methylene", "chloride", "also", "used", "processing", "plastics", "extracting", "fats", "oils", "food", "products", "methylene", "chloride", "also", "known", "dichloromethane", "organic", "halogen", "compound", "molecular", "formula", "ch", "c", "l2", "product", "non-flammable", "liquid", "measurable", "flashpoint", "flammable", "limits", "air"], "7": ["methylene", "chloride", "also", "called", "dichloromethane", "volatile", "colorless", "liquid", "chloroform-like", "odor", "methylene", "chloride", "used", "various", "industrial", "processes", "many", "different", "industries", "including", "paint", "stripping", "pharmaceutical", "manufacturing", "paint", "remover", "manufacturing", "metal", "cleaning", "degreasing", "common", "means", "exposure", "methylene", "chloride", "inhalation", "skin", "exposure"], "8": ["methylene", "chloride", "colorless", "liquid", "sweetish", "odor", "chemical", "formula", "methylene", "chloride", "ch", "cl", "molecular", "weight", "84.93", "g", "mol", "vapor", "pressure", "methylene", "chloride", "mm", "hg", "\u00b0", "c", "octanol", "water", "coefficient", "log", "k", "ow", "1.30", "methylene", "chloride", "colorless", "liquid", "sweetish", "odor", "chemical", "formula", "methylene", "chloride", "ch", "cl", "molecular", "weight", "84.93", "g", "mol"]}